id,iupac name,solute,smiles,train,only_HCNO,expt,tip3p,cha,zap9,mbondi,asc,igb5
mobley_9510785,"1,2,3,4-tetrachloro-5-phenyl-benzene",chcl133,c1ccc(cc1)c2cc(c(c(c2Cl)Cl)Cl)Cl,True,False,-3.48,-1.31,-2.31047,-1.84572,-0.823225,0.2370000000000001,-2.0210000000000004
mobley_951560,piperazine,chn070,C1CNCCN1,True,True,-7.4,-8.481,-8.37368,-7.19666,-4.75408,-5.7490000000000006,-5.701
mobley_9534740,"(2R,3R,4S,5S,6R)-6-(hydroxymethyl)tetrahydropyran-2,3,4,5-tetrol",cho212,C([C@@H]1[C@H]([C@@H]([C@H]([C@@H](O1)O)O)O)O)O,True,True,-25.47,-18.095,-15.6033,-18.0083,-25.7379,-18.104,-17.106
mobley_9557440,5-chlorouracil,choncl17,c1c(c(=O)[nH]c(=O)[nH]1)Cl,True,False,-17.74,-16.612,-17.9397,-14.8265,-16.6514,-20.39,-19.853
mobley_9565165,9H-fluorene,ch273,c1ccc-2c(c1)Cc3c2cccc3,False,True,-3.35,-4.269,-3.57815,-3.82433,-3.7012,-3.181,-5.094
mobley_9571888,endosulfan alpha,choscl01,C1[C@@H]2[C@H](COS(=O)O1)[C@@]3(C(=C([C@]2(C3(Cl)Cl)Cl)Cl)Cl)Cl,True,False,-4.23,-9.785,-8.42358,-8.61806,-8.07396,-7.983,-9.332
mobley_9617923,decan-2-one,cho510,CCCCCCCCC(=O)C,True,True,-2.34,-2.573,-3.56638,-1.91201,-3.42345,-2.8360000000000003,-4.496
mobley_9624458,"1,3-dichloropropane",chcl042,C(CCl)CCl,True,False,-1.89,-0.416,-2.02439,-1.89843,-2.05342,-1.701,-2.566
mobley_9626434,2-ethoxyethanol,cho402,CCOCCO,True,True,-6.69,-4.407,-6.41819,-7.06972,-8.83997,-6.972,-7.575
mobley_9653690,"(1S,5R)-2-methyl-5-(1-methylethenyl)-2-cyclohexen-1-ol",cho311,CC1=CC[C@H](C[C@@H]1O)C(=C)C,False,True,-4.44,-3.257,-3.38122,-3.11516,-4.67341,-2.688,-4.196
mobley_967099,2-nitropropane,chon106,CC(C)[N+](=O)[O-],True,True,-3.13,-1.741,-2.34566,-2.83293,-2.21112,-1.95,-2.398
mobley_9671033,1-nitropropane,chon103,CCC[N+](=O)[O-],True,True,-3.34,-1.632,-2.25454,-2.72329,-2.04572,-1.8090000000000008,-2.29
mobley_9705941,2-methylthiophene,chs032,Cc1cccs1,True,False,-1.38,-0.3,-1.86949,-0.584482,-1.23932,-0.6240000000000001,-1.89
mobley_9717937,1-chloro-2-phenyl-benzene,chcl121,c1ccc(cc1)c2ccccc2Cl,True,False,-2.69,-2.508,-2.87984,-2.95728,-2.67779,-2.358,-4.454000000000001
mobley_9729792,"cyclohepta-1,3,5-triene",ch161,C1C=CC=CC=C1,True,True,-0.99,-0.098,-1.91618,-0.991159,-1.24393,-0.5859999999999999,-2.366
mobley_9733743,butan-1-amine,chn013,CCCCN,True,True,-4.24,-2.961,-2.37505,-0.793,-0.45525,-0.3490000000000002,-2.902
mobley_9740891,dichlobenil,chncl041,c1cc(c(c(c1)Cl)C#N)Cl,True,False,-4.71,-3.32,-4.37067,-5.0522,-3.82638,-4.04,-5.019
mobley_9741965,"1,3-bis-(nitrooxy)butane",chon214,C[C@@H](CCO[N+](=O)[O-])O[N+](=O)[O-],False,True,-4.29,-4.944,-4.30244,-5.72353,-3.18062,-2.909,-3.605
mobley_9794857,2-methoxy-2-methyl-propane,cho021,CC(C)(C)OC,True,True,-2.21,-0.691,-0.971671,-1.20827,-1.42351,-0.56,-1.286
mobley_9821936,"1,2,3,4,6,7,8,9-octachlorodibenzo-p-dioxin",chocl050,c12c(c(c(c(c1Cl)Cl)Cl)Cl)Oc3c(c(c(c(c3Cl)Cl)Cl)Cl)O2,True,False,-4.53,-1.147,-1.7173,-0.21089,1.72597,4.305999999999999,1.635
mobley_9838013,2-methylbutan-2-ol,cho161,CCC(C)(C)O,True,True,-4.43,-2.933,-2.57867,-2.47779,-3.79077,-2.224,-3.505
mobley_9883303,3-methylhexane,ch025,CCC[C@H](C)CC,True,True,2.71,2.81,2.34342,2.29173,1.80527,3.052,1.502
mobley_9897248,"(2Z)-3,7-dimethylocta-2,6-dien-1-ol",cho302,CC(=CCC/C(=C\CO)/C)C,True,True,-4.78,-2.597,-3.51864,-3.43729,-5.4788,-3.2300000000000004,-4.754
mobley_9913368,"(E)-1,2-dichloroethylene",chcl072,C(=C/Cl)\Cl,True,False,-0.78,1.024,-0.252349,-0.59588,-0.520564,-0.0900000000000003,-1.126
mobley_9942801,1-ethyl-4-methyl-benzene,ch241,CCc1ccc(cc1)C,True,True,-0.95,-0.575,-1.20131,-0.421314,-0.758853,0.0590000000000001,-1.6409999999999998
mobley_994483,bromoethane,chbr002,CCBr,True,False,-0.74,0.487,-0.821768,-0.0625732,-1.08909,-0.0949999999999997,-0.8179999999999998
mobley_9974966,2-isopropylsulfanylpropane,chs015,CC(C)SC(C)C,True,False,-1.21,0.14,-1.11181,0.499588,-0.765837,0.032,-1.358
mobley_9979854,111-trifluoropropan-2-ol,chof003,C[C@H](C(F)(F)F)O,True,False,-4.2,-3.486,-3.34553,-4.16738,-8.6211,-6.662000000000001,-7.446999999999999