id,iupac name,solute,smiles,train,only_HCNO,expt,tip3p,cha,zap9,mbondi,asc,igb5
mobley_7150646,"1,4-dibromobenzene",chbr041,c1cc(ccc1Br)Br,True,False,-2.3,-1.091,-2.04844,-1.08425,-1.50181,-0.5670000000000002,-2.049
mobley_7157427,1-chloroheptane,chcl007,CCCCCCCCl,True,False,0.29,1.467,0.36432,0.714926,0.314957,1.382,-0.0609999999999999
mobley_7176248,trifluralin,chonf27,CCCN(CCC)c1c(cc(cc1[N+](=O)[O-])C(F)(F)F)[N+](=O)[O-],True,False,-3.25,-2.023,-2.21483,-2.57626,-2.33635,-2.0380000000000003,-4.042
mobley_7176290,3-nitrophenol,chon152,c1cc(cc(c1)O)[N+](=O)[O-],True,True,-9.62,-7.889,-5.79739,-8.49376,-9.37959,-7.481999999999999,-8.347999999999999
mobley_718988,heptan-1-amine,chn016,CCCCCCCN,True,True,-3.79,-2.554,-1.67952,-0.0735249,0.193243,0.5760000000000001,-2.307
mobley_7200804,2-fluorophenol,chof032,c1ccc(c(c1)O)F,True,False,-5.29,-3.346,-2.76435,-3.36818,-6.50349,-4.508,-5.795999999999999
mobley_7203421,hexanamide,chon702,CCCCCC(=O)N,True,True,-9.31,-8.103,-8.27591,-7.01392,-8.05697,-9.206,-9.978
mobley_7227357,pentan-3-ol,cho143,CCC(CC)O,True,True,-4.35,-2.786,-2.15847,-1.80257,-3.12888,-1.854,-2.894
mobley_7239499,1-chlorodibenzo-p-dioxin,chocl040,c1ccc2c(c1)Oc3cccc(c3O2)Cl,True,False,-3.52,-4.473,-3.67465,-5.90534,-4.31899,-3.98,-5.697
mobley_7261305,hydrazine,nh01,NN,True,True,-9.3,-6.508,-12.0564,-9.52375,-7.6484,-10.45,-12.834
mobley_7295828,anisole,cho080,COc1ccccc1,True,True,-2.45,-2.318,-3.21892,-3.51015,-3.4645,-3.136,-4.486
mobley_7298388,1-methyl-3-nitro-benzene,chon122,Cc1cccc(c1)[N+](=O)[O-],True,True,-3.45,-3.278,-3.08463,-4.12391,-3.06884,-3.13,-3.885
mobley_7326706,chlorpyrifos,chonspcl01,CCOP(=S)(OCC)Oc1c(cc(c(n1)Cl)Cl)Cl,True,False,-5.04,-9.625,-9.57371,-9.24118,-10.4475,-11.559,-12.542
mobley_7326982,propan-2-ol,cho140,CC(C)O,True,True,-4.74,-3.427,-3.35131,-3.41075,-5.04657,-3.475,-4.362
mobley_7360181,"1,1,1-trifluoro-2,2,2-trimethoxyethane",chof061,COC(C(F)(F)F)(OC)OC,True,False,-0.8,-2.319,-2.39459,-2.7929,-3.97089,-4.132000000000001,-4.278
mobley_7364468,"3,5,5-trimethylcyclohex-2-en-1-one",cho561,CC1=CC(=O)CC(C1)(C)C,True,True,-5.18,-4.088,-4.69038,-3.41574,-4.88773,-4.994999999999999,-5.66
mobley_7375018,undecan-2-one,cho511,CCCCCCCCCC(=O)C,True,True,-2.15,-2.201,-3.30037,-1.624,-3.13704,-2.4560000000000004,-4.265000000000001
mobley_7378987,caffeine,chon832,Cn1cnc2c1c(=O)n(c(=O)n2C)C,True,True,-12.64,-17.621,-18.5631,-13.5082,-14.8973,-17.266,-18.377
mobley_7393673,methyl 4-methoxybenzoate,cho820,COc1ccc(cc1)C(=O)OC,False,True,-5.33,-6.462,-6.46522,-7.25259,-7.50223,-8.051,-9.067
mobley_7415647,"N,N-dimethyl-4-nitro-benzamide",chon161,CN(C)C(=O)c1ccc(cc1)[N+](=O)[O-],True,True,-11.95,-10.036,-9.75378,-9.88401,-9.72609,-10.673,-11.476
mobley_7417968,2-ethoxyethyl acetate,cho782,CCOCCOC(=O)C,True,True,-5.31,-5.751,-6.76849,-6.13159,-6.89543,-7.59,-7.745999999999999
mobley_7455579,isobutyl formate,cho704,CC(C)COC=O,True,True,-2.22,-3.458,-4.07404,-3.63069,-4.93698,-5.459000000000001,-6.554
mobley_7463408,"N-(3,4-dichlorophenyl)propanimidic acid",choncl23,CCC(=O)Nc1ccc(c(c1)Cl)Cl,True,False,-7.78,-9.409,-8.66158,-7.21377,-7.17748,-7.450999999999999,-9.035
mobley_7463799,3-phenylpropan-1-ol,cho173,c1ccc(cc1)CCCO,True,True,-6.92,-5.771,-6.21541,-5.50001,-7.33324,-5.382000000000001,-7.129
mobley_7497999,1-phenylethanone,cho570,CC(=O)c1ccccc1,True,True,-4.58,-5.078,-6.31198,-5.48386,-6.61137,-7.026,-8.237
mobley_7532833,acetonitrile,chn200,CC#N,True,True,-3.88,-2.789,-4.39567,-4.96907,-4.76349,-5.813000000000001,-5.819
mobley_7542832,1-propoxypropane,cho011,CCCOCCC,True,True,-1.16,-0.004,-0.279345,-0.352327,-0.527905,0.4769999999999998,-0.514
mobley_755351,3-methoxyaniline,chon502,COc1cccc(c1)N,True,True,-7.29,-7.201,-8.99576,-7.43895,-6.39551,-7.225,-9.225
mobley_7573149,propyl acetate,cho713,CCCOC(=O)C,True,True,-2.79,-3.486,-4.54446,-3.57014,-4.66463,-4.890000000000001,-5.5280000000000005
mobley_7578802,bromoform,chbr011,C(Br)(Br)Br,True,False,-2.13,-0.531,-1.87975,0.858485,-0.171257,1.132,-0.217
mobley_7599023,bromobenzene,chbr040,c1ccc(cc1)Br,True,False,-1.46,-0.947,-1.91223,-1.44299,-1.83434,-1.1789999999999998,-2.614
mobley_7608435,methyl octanoate,cho755,CCCCCCCC(=O)OC,True,True,-2.04,-3.035,-3.47906,-2.68716,-3.70622,-3.4239999999999995,-4.849
mobley_7608462,chlorobenzene,chcl101,c1ccc(cc1)Cl,False,False,-1.12,-0.475,-1.39829,-1.62985,-1.53981,-1.118,-2.533
mobley_7610437,2-methylpentan-3-ol,cho152,CC[C@H](C(C)C)O,True,True,-3.88,-2.416,-1.95797,-1.58444,-2.94032,-1.5909999999999995,-2.649
mobley_766666,"1,1,2-trichloroethylene",chcl074,C(=C(Cl)Cl)Cl,True,False,-0.44,0.818,-0.551439,-0.354441,-0.129376,0.6719999999999997,-0.5189999999999999
mobley_7676709,6-isopropyl-3-methyl-1-cyclohex-2-enone,cho562,CC1=CC(=O)[C@@H](CC1)C(C)C,False,True,-4.51,-3.825,-3.92883,-2.7438,-3.97855,-3.737,-4.867
mobley_7688753,3-hydroxybenzaldehyde,cho651,c1cc(cc(c1)O)C=O,True,True,-9.52,-9.369,-8.10161,-9.1346,-12.1839,-11.125,-12.579
mobley_7690440,methyldisulfanylmethane,chs001,CSSC,True,False,-1.83,-0.093,-2.14485,-0.245632,-1.62981,-1.299,-2.045
mobley_7708038,1-bromopropane,chbr003,CCCBr,True,False,-0.56,0.579,-0.58304,0.296887,-0.722433,0.4300000000000001,-0.4679999999999999
mobley_7732703,bromo-trifluoro-methane,chfbr001,C(F)(F)(F)Br,True,False,1.79,1.564,1.34498,2.43488,-0.292094,0.8799999999999999,-2.473
mobley_7735340,imidazole,chn170,c1cnc[nH]1,True,True,-9.63,-7.972,-8.36006,-9.06722,-8.64271,-9.864,-10.343
mobley_7754849,ethion,chosp01,CCOP(=S)(OCC)SCSP(=S)(OCC)OCC,True,False,-6.1,-10.644,-15.192,-13.8448,-16.1116,-20.065,-17.683
mobley_7758918,propionic acid,cho671,CCC(=O)O,False,True,-6.46,-9.088,-8.17329,-8.97296,-12.4708,-10.528,-10.974
mobley_7768165,1-bromo-2-chloro-ethane,chclbr001,C(CBr)Cl,True,False,-1.95,-0.8,-1.75506,-1.03163,-1.66918,-0.8340000000000001,-1.831
mobley_7769613,2-bromo-2-methyl-propane,chbr022,CC(C)(C)Br,True,False,0.84,0.438,-0.68042,0.0241654,-1.14642,0.2139999999999999,-0.7780000000000002
mobley_7774695,N-methylaniline,chn114,CNc1ccccc1,True,True,-4.69,-5.719,-7.20158,-4.97269,-4.80981,-5.134,-7.208
mobley_778352,2-methylbut-2-ene,ch123,CC=C(C)C,True,True,1.31,2.272,1.14842,1.24462,0.794949,1.7520000000000002,0.3619999999999999
mobley_7794077,5-trifluoromethyluracil,chonf23,c1c(c(=O)[nH]c(=O)[nH]1)C(F)(F)F,True,False,-15.46,-17.349,-16.8455,-14.4746,-18.1672,-22.52,-22.705
mobley_7814642,"1,2,4-trichlorobenzene",chcl106,c1cc(c(cc1Cl)Cl)Cl,True,False,-1.12,-0.117,-0.974442,-1.35859,-0.665783,0.08,-1.378
mobley_7829570,"N-butyl-N-ethyl-2,6-dinitro-4-(trifluoromethyl)aniline",chonf24,CCCC[N@](CC)c1c(cc(cc1[N+](=O)[O-])C(F)(F)F)[N+](=O)[O-],True,False,-3.51,-2.303,-2.34296,-2.69936,-2.43786,-2.1819999999999995,-4.127000000000001
mobley_7859387,heptanal,cho607,CCCCCCC=O,False,True,-2.67,-2.704,-3.28007,-2.37805,-3.97522,-3.965,-5.388
mobley_7860938,N-butylbutan-1-amine,chn034,CCCCNCCCC,True,True,-3.24,-2.076,-1.44497,-0.977508,-0.264547,-0.149,-0.8559999999999999
mobley_7869158,[(2S)-butan-2-yl] nitrate,chon204,CC[C@H](C)O[N+](=O)[O-],True,True,-1.82,-1.864,-1.84771,-2.36385,-1.3902,-0.8720000000000003,-1.487
mobley_7893124,tert-butylbenzene,ch214,CC(C)(C)c1ccccc1,True,True,-0.44,-0.803,-1.20035,-0.343057,-0.753051,0.1049999999999999,-1.677
mobley_7912193,butyl paraben,cho834,CCCCOC(=O)c1ccc(cc1)O,True,True,-8.72,-8.771,-7.10308,-8.37475,-10.76,-8.825,-10.304
mobley_7913234,1-butoxy-2-propanol,cho405,CCCCOC[C@H](C)O,True,True,-5.73,-3.891,-3.76571,-3.61077,-4.80031,-3.075,-3.965
mobley_7943327,ethyl propanoate,cho732,CCC(=O)OCC,True,True,-2.68,-3.221,-3.89899,-3.10745,-3.9866,-4.029999999999999,-4.872
mobley_7977115,hexan-3-ol,cho144,CCC[C@H](CC)O,True,True,-4.06,-2.585,-1.86029,-1.47232,-2.7731,-1.4689999999999994,-2.536
mobley_7983227,2-methylbutan-1-ol,cho131,CC[C@@H](C)CO,True,True,-4.42,-2.995,-2.47228,-2.61554,-4.50186,-1.982,-3.666
mobley_7988076,4-hydroxybenzaldehyde,cho652,c1cc(ccc1C=O)O,False,True,-8.83,-10.05,-9.19038,-10.1893,-13.2865,-12.404,-13.612
mobley_8006582,cyclopentane,ch075,C1CCCC1,False,True,1.2,1.648,1.52435,1.56806,1.28141,2.315,1.048
mobley_8011706,"N,N-dimethylformamide",chon721,CN(C)C=O,True,True,-7.81,-6.932,-8.04362,-5.49561,-7.41134,-8.517,-9.064
mobley_8048190,acetamide,chon700,CC(=O)N,True,True,-9.71,-8.82,-9.87065,-8.65282,-9.85646,-11.874,-11.643
mobley_8052240,"1-amino-9,10-anthracenedione",chon601,c1ccc2c(c1)C(=O)c3cccc(c3C2=O)N,True,True,-9.44,-12.214,-12.045,-10.8391,-10.7214,-12.036,-14.281000000000002
mobley_8057732,3-chlorophenol,chocl033,c1cc(cc(c1)Cl)O,True,False,-6.62,-5.018,-4.03934,-5.67392,-7.32951,-5.199,-6.527
mobley_8117218,endrin,chocl030,C1[C@@H]2[C@H]3[C@@H]([C@H]1[C@H]4[C@@H]2O4)[C@@]5(C(=C([C@]3(C5(Cl)Cl)Cl)Cl)Cl)Cl,True,False,-4.82,-5.179,-5.63784,-4.90811,-3.49674,-2.489,-3.841
mobley_8118832,prop-2-en-1-ol,cho300,C=CCO,True,True,-5.03,-3.286,-4.3071,-4.28499,-6.39825,-4.668,-5.6370000000000005
mobley_8124669,alachlor,choncl21,CCc1cccc(c1N(COC)C(=O)CCl)CC,True,False,-8.21,-6.851,-8.82732,-7.4364,-8.35254,-8.59,-9.942
mobley_8127829,ethylbenzene,ch202,CCc1ccccc1,True,True,-0.79,-0.606,-1.68927,-0.748282,-1.08436,-0.3700000000000001,-2.126
mobley_819018,"(2E)-3,7-dimethylocta-2,6-dien-1-ol",cho301,CC(=CCC/C(=C/CO)/C)C,True,True,-4.45,-2.518,-3.53723,-3.45986,-5.46827,-3.258,-4.785
mobley_8191186,"2-chloro-1,1,1-trifluoro-ethane",chfcl011,C(C(F)(F)F)Cl,True,False,0.06,0.233,0.084301,-0.29212,-2.39189,-2.27,-4.2
mobley_8207196,simazine,chncl042,CCNc1nc(nc(n1)Cl)NCC,True,False,-10.22,-10.914,-13.9368,-11.1577,-8.6186,-9.867,-11.28
mobley_820789,butyric acid,cho672,CCCC(=O)O,True,True,-6.35,-9.434,-8.61201,-9.60377,-13.3596,-11.171,-11.767
mobley_8208692,"1,2,3,4-tetrachloro-5-(2,3,4,6-tetrachlorophenyl)benzene",chcl130,c1c(c(c(c(c1Cl)Cl)Cl)Cl)c2c(cc(c(c2Cl)Cl)Cl)Cl,True,False,-4.61,-0.039,-2.46709,-1.18551,0.630003,2.646,0.0599999999999996
mobley_8221999,butanenitrile,chn202,CCCC#N,True,True,-3.64,-2.287,-3.76859,-4.1298,-3.9018,-4.371,-4.824
mobley_8260524,prop-1-yne,ch403,CC#C,True,True,-0.48,0.065,0.311569,-0.169451,-0.589342,-0.1129999999999999,-1.243
mobley_8311303,"1,2,4,5-tetrachloro-3-(3,4-dichlorophenyl)benzene",chcl131,c1cc(c(cc1c2c(c(cc(c2Cl)Cl)Cl)Cl)Cl)Cl,True,False,-4.38,-0.705,-2.33273,-2.21355,-0.540234,0.7850000000000001,-1.525
mobley_8311321,chloro-difluoro-methane,chfcl002,C(F)(F)Cl,True,False,-0.5,-0.067,-0.19585,-0.320098,-2.59961,-2.681,-4.5840000000000005
mobley_8320545,1-nitroethane,chon102,CC[N+](=O)[O-],True,True,-3.71,-1.839,-2.56312,-3.10408,-2.40672,-2.3560000000000003,-2.6659999999999995
mobley_8337722,"(1R,2S,5R)-2-isopropyl-5-methylcyclohexanol",cho191,C[C@@H]1CC[C@H]([C@@H](C1)O)C(C)C,True,True,-3.2,-3.35,-1.92963,-1.78186,-3.26487,-1.0370000000000004,-2.419
mobley_8337977,4-methylpentan-2-one,cho532,CC(C)CC(=O)C,True,True,-3.05,-3.116,-4.56195,-2.90429,-4.46023,-4.2860000000000005,-5.297
mobley_8426916,N-ethylethanamine,chn031,CCNCC,True,True,-4.07,-2.986,-2.39365,-1.86755,-1.14757,-1.463,-1.7979999999999998
mobley_8427539,propionamide,chon701,CCC(=O)N,True,True,-9.4,-8.31,-8.8135,-7.67168,-8.65161,-10.116,-10.547
mobley_8436428,"2,4-dimethylpentane",ch032,CC(C)CC(C)C,False,True,2.83,2.756,2.34814,2.31219,1.80411,3.038,1.507
mobley_8449031,"N,N-diethylethanamine",chn003,CCN(CC)CC,True,True,-3.22,-1.955,-1.08071,-1.14769,-0.285108,0.0729999999999999,1.43
mobley_8467917,hept-2-ene,ch121,CCCC/C=C/C,False,True,1.68,2.78,1.66399,1.91633,1.41904,2.467,0.8439999999999999
mobley_8492526,pentanal,cho605,CCCCC=O,True,True,-3.03,-2.927,-3.60936,-2.77449,-4.35552,-4.5,-5.742
mobley_8514745,pentyl acetate,cho715,CCCCCOC(=O)C,True,True,-2.51,-2.565,-3.68861,-2.80667,-3.76283,-3.721,-4.609999999999999
mobley_8522124,oct-1-yne,ch408,CCCCCCC#C,True,True,0.71,0.832,1.15489,0.97643,0.542258,1.6110000000000002,-0.2189999999999998
mobley_8525830,1-iodopentane,chi005,CCCCCI,False,False,-0.14,-0.111,-0.599923,0.953224,-2.30924,-0.4330000000000003,-1.55
mobley_852937,4-fluorophenol,chof034,c1cc(ccc1O)F,True,False,-6.19,-4.955,-4.00628,-5.30964,-8.08917,-6.295999999999999,-7.346999999999999
mobley_8558116,4-methylmorpholine,chon421,CN1CCOCC1,True,True,-6.32,-5.774,-4.91272,-4.56993,-3.76115,-3.916,-2.104
mobley_8573194,butanal,cho604,CCCC=O,True,True,-3.18,-3.044,-3.81647,-3.00616,-4.57978,-4.881,-5.963
mobley_8578590,methylsulfinylmethane,chos001,CS(=O)C,True,False,-9.28,-8.243,-8.95067,-8.40352,-8.89433,-10.457,-9.477
mobley_859464,isobutyl acetate,cho722,CC(C)COC(=O)C,True,True,-2.36,-2.896,-4.01866,-3.00997,-4.07948,-4.16,-4.971
mobley_8614858,heptane,ch007,CCCCCCC,True,True,2.67,2.925,2.39092,2.4032,1.91357,3.2350000000000003,1.577
mobley_8668219,"2,3-dimethylpentane",ch031,CC[C@@H](C)C(C)C,True,True,2.52,2.625,2.29599,2.2233,1.74388,2.964,1.47
mobley_8685905,"2-bromo-1,1,1,2-tetrafluoro-ethane",chfbr002,[C@@H](C(F)(F)F)(F)Br,True,False,0.5,0.234,0.51701,0.929192,-1.93173,-1.505,-4.351000000000001
mobley_8691603,m-cresol,cho353,Cc1cccc(c1)O,True,True,-5.49,-5.378,-4.65507,-5.4018,-7.34385,-5.299000000000001,-6.707
mobley_8705848,N-isopropylpropan-2-amine,chn033,CC(C)NC(C)C,True,True,-3.22,-1.985,-0.958393,-0.943819,-0.254872,-0.1829999999999998,-0.6400000000000001
mobley_8713762,"N,N-dipropyl(propylsulfanyl)formamide",chons11,CCCN(CCC)C(=O)SCCC,True,False,-4.13,-4.569,-4.97873,-2.01905,-3.64385,-3.1640000000000006,-4.18
mobley_8723116,4-chloroaniline,chncl004,c1cc(ccc1N)Cl,True,False,-5.9,-5.281,-7.58345,-5.68179,-4.59737,-5.383000000000001,-7.501
mobley_8739734,3-methylbutan-2-one,cho530,CC(C)C(=O)C,True,True,-3.24,-3.078,-4.25589,-2.85476,-4.31569,-4.212,-5.217
mobley_8746821,"2,3-dimethylpyridine",chn144,Cc1cccnc1C,True,True,-4.82,-3.367,-4.32957,-4.61909,-4.36258,-3.864,-5.253
mobley_8754702,propyl formate,cho702,CCCOC=O,True,True,-2.48,-3.699,-4.34055,-3.96949,-5.23175,-5.893000000000001,-6.886000000000001
mobley_8764620,pyridine-3-carbonitrile,chn206,c1cc(cnc1)C#N,True,True,-6.75,-5.582,-7.69663,-8.15684,-7.3297,-8.372,-9.353
mobley_8765203,isoprene,ch151,CC(=C)C=C,True,True,0.68,1.824,0.170611,0.566375,0.0276648,0.687,-0.746
mobley_8772587,1-iodobutane,chi004,CCCCI,True,False,-0.25,-0.223,-0.868863,0.738478,-2.52337,-0.7710000000000004,-1.73
mobley_8785107,"2,5-dimethyltetrahydrofuran",cho054,C[C@H]1CC[C@@H](O1)C,True,True,-2.92,-1.787,-1.32706,-1.35293,-1.34941,-0.4340000000000001,-1.1150000000000002
mobley_8789465,2-iodophenol,choi001,c1ccc(c(c1)O)I,False,False,-6.2,-3.221,-2.65097,-2.57752,-6.49731,-3.455,-5.234
mobley_8789864,"3,3,3-trimethoxypropanenitrile",chon001,COC(CC#N)(OC)OC,True,True,-6.4,-5.859,-8.35648,-9.93756,-8.95476,-9.481,-9.584
mobley_8798016,pyridine-4-carbaldehyde,chon302,c1cnccc1C=O,True,True,-7.0,-7.338,-8.95383,-8.54641,-9.42357,-10.452,-11.931
mobley_8809190,butylbenzene,ch204,CCCCc1ccccc1,True,True,-0.4,-0.227,-1.25146,-0.260548,-0.622909,0.2399999999999997,-1.6969999999999998
mobley_8809274,trifluoromethylbenzene,chf040,c1ccc(cc1)C(F)(F)F,True,False,-0.25,-0.57,-0.572365,-1.08327,-2.905,-2.854,-4.550000000000001
mobley_8823527,"1,2,3-trichloro-5-(2,5-dichlorophenyl)benzene",chcl132,c1cc(c(cc1Cl)c2cc(c(c(c2)Cl)Cl)Cl)Cl,False,False,-3.61,-0.922,-2.0877,-2.39799,-0.888106,0.1150000000000002,-2.006
mobley_8827942,"1,2,4-trichlorodibenzo-p-dioxin",chocl049,c1ccc2c(c1)Oc3c(cc(c(c3O2)Cl)Cl)Cl,True,False,-4.05,-3.16,-2.93663,-4.18358,-2.36062,-1.4330000000000007,-3.472
mobley_8861672,"2,4-dimethylpyridine",chn145,Cc1ccnc(c1)C,True,True,-4.86,-3.282,-4.14561,-4.60603,-4.36408,-3.884,-5.309
mobley_8882696,tetrahydrofuran,cho050,C1CCOC1,True,True,-3.47,-2.201,-2.12096,-2.12318,-2.20225,-1.7679999999999998,-2.05
mobley_8883511,2-methylbenzaldehyde,cho641,Cc1ccccc1C=O,True,True,-3.93,-4.554,-5.57405,-4.75764,-6.04812,-6.498,-7.853999999999999
mobley_8885088,cyclopentene,ch170,C1CC=CC1,False,True,0.56,1.23,0.25975,0.712602,0.402058,1.2300000000000002,-0.1140000000000001
mobley_8899867,cyclopentanol,cho185,C1CCC(C1)O,True,True,-5.49,-4.29,-3.4698,-3.32766,-4.83315,-2.901,-4.126
mobley_8916409,diethyl (2R)-2-dimethoxyphosphinothioylsulfanylbutanedioate,chosp02,CCOC(=O)C[C@H](C(=O)OCC)SP(=S)(OC)OC,True,False,-8.15,-11.194,-14.903,-13.9611,-15.9772,-18.219,-18.357
mobley_8966374,2-methylpyrazine,chn160,Cc1cnccn1,True,True,-5.51,-6.161,-7.74725,-7.57313,-7.50819,-8.086,-9.205
mobley_8983100,bromomethane,chbr001,CBr,True,False,-0.82,0.46,-0.815123,-0.134953,-1.1179,-0.3209999999999999,-0.924
mobley_900088,"2,3-dimethylbuta-1,3-diene",ch152,CC(=C)C(=C)C,True,True,0.4,1.862,0.460063,0.761466,0.241934,1.083,-0.5169999999999999
mobley_9007496,naphthalen-1-yl N-methylcarbamate,chon851,CNC(=O)Oc1cccc2c1cccc2,False,True,-9.45,-10.436,-9.71877,-10.068,-10.2489,-10.742,-12.177
mobley_9015240,1-bromooctane,chbr008,CCCCCCCCBr,True,False,0.52,1.352,0.327821,1.38253,0.327817,2.028,0.405
mobley_9028462,"methyl 2,2,2-trifluoroacetate",chof060,COC(=O)C(F)(F)F,True,False,-1.1,-1.353,-0.109082,-0.970342,-3.63747,-4.166,-6.658
mobley_902954,butyl nitrate,chon201,CCCCO[N+](=O)[O-],True,True,-2.09,-1.938,-1.98016,-2.62101,-1.59662,-1.112,-1.881
mobley_9029594,fluoromethane,chf011,CF,True,False,-0.22,0.881,-0.468095,0.526704,-1.41178,-1.471,-1.965
mobley_9055303,methane,ch001,C,True,True,2.0,2.446,1.47257,1.24229,0.753453,1.411,0.6759999999999999
mobley_9073553,methylsulfanylmethane,chs011,CSC,True,False,-1.61,0.44,-1.27172,0.0643906,-1.13818,-0.7969999999999997,-1.558
mobley_9100956,methylcyclohexane,ch082,CC1CCCCC1,True,True,1.7,1.679,1.8222,1.95342,1.64936,2.807,1.387
mobley_9112978,pent-2-ene,ch120,CC/C=C\C,True,True,1.31,2.374,1.06501,1.27629,0.830132,1.757,0.309
mobley_9114381,methyl 2-cyanoacetate,chon002,COC(=O)CC#N,True,True,-6.72,-6.36,-7.79861,-9.04241,-9.17712,-10.633,-11.432
mobley_9121449,but-1-yne,ch404,CCC#C,True,True,-0.16,0.284,0.45308,0.11171,-0.290711,0.347,-0.9520000000000002
mobley_9139060,"1,4-dimethylcyclohexane",ch084,CC1CCC(CC1)C,True,True,2.11,1.918,2.03695,2.18554,1.84764,3.051,1.586
mobley_9185328,propan-1-amine,chn012,CCCN,True,True,-4.39,-3.053,-2.59226,-1.02081,-0.669734,-0.6309999999999998,-3.121
mobley_9197172,oct-1-ene,ch108,CCCCCCC=C,True,True,1.92,2.895,1.73108,2.09568,1.55162,2.711,0.8809999999999999
mobley_9201263,methyl methanesulfonate,chos020,COS(=O)(=O)C,False,False,-4.87,-8.824,-2.76096,-9.58663,-9.60737,-12.156,-14.882
mobley_9209581,"N,N-dimethylmethanamine",chn002,CN(C)C,True,True,-3.2,-2.636,-3.12992,-2.45749,-2.25656,-2.139,-1.634
mobley_9246215,"penta-1,4-diene",ch141,C=CCC=C,True,True,0.93,2.357,0.305176,0.878448,0.283164,0.8949999999999998,-0.5950000000000002
mobley_9246351,dibromomethane,chbr012,C(Br)Br,True,False,-1.96,-0.405,-1.67275,-0.126857,-1.12028,-0.1390000000000002,-1.104
mobley_9257453,"3,4-dichlorophenol",chocl035,c1cc(c(cc1O)Cl)Cl,False,False,-7.29,-5.139,-3.96138,-5.75799,-7.25545,-4.8870000000000005,-6.138
mobley_9281946,diethoxy-(4-nitrophenoxy)-thioxo-$l^{5}-phosphane,chonsp03,CCOP(=S)(OCC)Oc1ccc(cc1)[N+](=O)[O-],True,False,-6.74,-9.211,-7.12798,-9.54779,-8.96515,-10.141000000000002,-10.879
mobley_929676,1-bromohexane,chbr006,CCCCCCBr,True,False,0.18,1.076,-0.0657122,0.910408,-0.141151,1.3630000000000002,0.0230000000000001
mobley_9407874,octan-2-one,cho508,CCCCCCC(=O)C,True,True,-2.88,-2.758,-3.90754,-2.32862,-3.82148,-3.438,-4.819
mobley_9414831,1-methylnaphthalene,ch301,Cc1cccc2c1cccc2,True,True,-2.44,-3.212,-2.6822,-2.85862,-2.86948,-2.2789999999999995,-4.051
mobley_9434451,2-bromopropane,chbr020,CC(C)Br,True,False,-0.48,0.448,-0.773557,-0.00815737,-1.10492,0.0710000000000001,-0.766
mobley_9460824,diethoxy-(ethylsulfanylmethylsulfanyl)-thioxo-$l^{5}-phosphane,chosp03,CCOP(=S)(OCC)SCSCC,True,False,-4.37,-6.427,-9.14217,-6.61081,-8.97126,-9.874,-9.447
mobley_9478823,o-xylene,ch222,Cc1ccccc1C,True,True,-0.9,-0.851,-1.66965,-0.927437,-1.22667,-0.4739999999999997,-2.054
mobley_9507933,"2,5-dimethylpyridine",chn146,Cc1ccc(nc1)C,True,True,-4.72,-3.165,-3.98213,-4.47248,-4.23212,-3.745,-5.0760000000000005